file 14253723 1558545961                                        
version 2
run General-0-20190522-19:21:44-4524
attr configname General
attr controllerServiceTimeFactor 1
attr datetime 20190522-19:21:44
attr experiment General
attr inifile Scenario_TestCase_HubAltered.ini
attr iterationvars $controllerServiceTimeFactor=1
attr iterationvars2 "$controllerServiceTimeFactor=1, $repetition=0"
attr measurement $controllerServiceTimeFactor=1
attr network openflow.networks.Scenario_TestCaseAltered
attr processid 4524
attr repetition 0
attr replication #0
attr resultdir results
attr runnumber 0
attr seedset 0

vector 94  Scenario_TestCaseAltered.pgw.ppp[0].queue  queueLength:vector  ETV
attr interpolationmode  sample-hold
attr title  "queue length, vector"
vector 95  Scenario_TestCaseAltered.pgw.ppp[0].ppp  txState:vector  ETV
attr interpolationmode  sample-hold
attr title  "tx state, vector"
vector 105  Scenario_TestCaseAltered.pgw.pppInterface.queue  queueLength:vector  ETV
attr interpolationmode  sample-hold
attr title  "queue length, vector"
vector 106  Scenario_TestCaseAltered.pgw.pppInterface.ppp  txState:vector  ETV
attr interpolationmode  sample-hold
attr title  "tx state, vector"
vector 133  Scenario_TestCaseAltered.eNodeB.ppp.queue  queueLength:vector  ETV
attr interpolationmode  sample-hold
attr title  "queue length, vector"
vector 134  Scenario_TestCaseAltered.eNodeB.ppp.ppp  txState:vector  ETV
attr interpolationmode  sample-hold
attr title  "tx state, vector"
vector 1440  Scenario_TestCaseAltered.router.ppp[0].queue  queueLength:vector  ETV
attr interpolationmode  sample-hold
attr title  "queue length, vector"
vector 1441  Scenario_TestCaseAltered.router.ppp[0].ppp  txState:vector  ETV
attr interpolationmode  sample-hold
attr title  "tx state, vector"
vector 123  Scenario_TestCaseAltered.eNodeB.nic.mac  receivedPacketFromLowerLayer:vector(packetBytes)  ETV
attr interpolationmode  none
attr source  receivedPacketFromLowerLayer
vector 1504  Scenario_TestCaseAltered.open_flow_switch1.tcp  tcpRcvQueueBytes  ETV
vector 1491  Scenario_TestCaseAltered.open_flow_switch1.tcp  "advertised window"  ETV
vector 1490  Scenario_TestCaseAltered.open_flow_switch1.tcp  "receive window"  ETV
vector 1493  Scenario_TestCaseAltered.open_flow_switch1.tcp  "sent ack"  ETV
vector 20  Scenario_TestCaseAltered.open_flow_switch1.networkLayer.arp  sentReq:vector  ETV
attr title  "ARP request sent, vector"
vector 31  Scenario_TestCaseAltered.open_flow_switch1.eth[0].encap  encapPk:vector(packetBytes)  ETV
attr interpolationmode  none
attr source  encapPk
attr title  "packets encapsulated, vector(packetBytes)"
vector 27  Scenario_TestCaseAltered.open_flow_switch1.eth[0].mac  rxPkFromHL:vector(packetBytes)  ETV
attr interpolationmode  none
attr source  rxPkFromHL
attr title  "packet bytes from higher layer, vector(packetBytes)"
vector 22  Scenario_TestCaseAltered.open_flow_switch1.eth[0].mac  txPk:vector(packetBytes)  ETV
attr interpolationmode  none
attr source  txPk
attr title  "packets transmitted, vector(packetBytes)"
vector 70  Scenario_TestCaseAltered.open_flow_controller1.eth[0].mac  rxPkOk:vector(packetBytes)  ETV
attr interpolationmode  none
attr source  rxPkOk
attr title  "packets received OK, vector(packetBytes)"
vector 71  Scenario_TestCaseAltered.open_flow_controller1.eth[0].mac  passedUpPk:vector(packetBytes)  ETV
attr interpolationmode  none
attr source  packetSentToUpper
attr title  "packets passed to higher layer, vector(packetBytes)"
vector 79  Scenario_TestCaseAltered.open_flow_controller1.eth[0].encap  decapPk:vector(packetBytes)  ETV
attr interpolationmode  none
attr source  decapPk
attr title  "packets decapsulated, vector(packetBytes)"
vector 68  Scenario_TestCaseAltered.open_flow_controller1.networkLayer.arp  sentReply:vector  ETV
attr title  "ARP replies sent, vector"
vector 78  Scenario_TestCaseAltered.open_flow_controller1.eth[0].encap  encapPk:vector(packetBytes)  ETV
attr interpolationmode  none
attr source  encapPk
attr title  "packets encapsulated, vector(packetBytes)"
vector 74  Scenario_TestCaseAltered.open_flow_controller1.eth[0].mac  rxPkFromHL:vector(packetBytes)  ETV
attr interpolationmode  none
attr source  rxPkFromHL
attr title  "packet bytes from higher layer, vector(packetBytes)"
vector 69  Scenario_TestCaseAltered.open_flow_controller1.eth[0].mac  txPk:vector(packetBytes)  ETV
attr interpolationmode  none
attr source  txPk
attr title  "packets transmitted, vector(packetBytes)"
vector 23  Scenario_TestCaseAltered.open_flow_switch1.eth[0].mac  rxPkOk:vector(packetBytes)  ETV
attr interpolationmode  none
attr source  rxPkOk
attr title  "packets received OK, vector(packetBytes)"
vector 24  Scenario_TestCaseAltered.open_flow_switch1.eth[0].mac  passedUpPk:vector(packetBytes)  ETV
attr interpolationmode  none
attr source  packetSentToUpper
attr title  "packets passed to higher layer, vector(packetBytes)"
vector 32  Scenario_TestCaseAltered.open_flow_switch1.eth[0].encap  decapPk:vector(packetBytes)  ETV
attr interpolationmode  none
attr source  decapPk
attr title  "packets decapsulated, vector(packetBytes)"
vector 1453  Scenario_TestCaseAltered.open_flow_controller1.tcp  "rcvd seq"  ETV
vector 1454  Scenario_TestCaseAltered.open_flow_controller1.tcp  "rcvd ack"  ETV
vector 1450  Scenario_TestCaseAltered.open_flow_controller1.tcp  "advertised window"  ETV
vector 1448  Scenario_TestCaseAltered.open_flow_controller1.tcp  "send window"  ETV
vector 1463  Scenario_TestCaseAltered.open_flow_controller1.tcp  tcpRcvQueueBytes  ETV
vector 1449  Scenario_TestCaseAltered.open_flow_controller1.tcp  "receive window"  ETV
vector 1452  Scenario_TestCaseAltered.open_flow_controller1.tcp  "sent ack"  ETV
vector 1494  Scenario_TestCaseAltered.open_flow_switch1.tcp  "rcvd seq"  ETV
vector 1495  Scenario_TestCaseAltered.open_flow_switch1.tcp  "rcvd ack"  ETV
vector 1489  Scenario_TestCaseAltered.open_flow_switch1.tcp  "send window"  ETV
vector 1492  Scenario_TestCaseAltered.open_flow_switch1.tcp  "sent seq"  ETV
vector 1496  Scenario_TestCaseAltered.open_flow_switch1.tcp  "unacked bytes"  ETV
vector 1455  Scenario_TestCaseAltered.open_flow_controller1.tcp  "unacked bytes"  ETV
vector 1465  Scenario_TestCaseAltered.open_flow_controller1.tcp  cwnd  ETV
vector 1456  Scenario_TestCaseAltered.open_flow_controller1.tcp  "rcvd dupAcks"  ETV
vector 1508  Scenario_TestCaseAltered.open_flow_switch1.tcp  "measured RTT"  ETV
vector 1509  Scenario_TestCaseAltered.open_flow_switch1.tcp  "smoothed RTT"  ETV
vector 1510  Scenario_TestCaseAltered.open_flow_switch1.tcp  RTTVAR  ETV
vector 1511  Scenario_TestCaseAltered.open_flow_switch1.tcp  RTO  ETV
vector 1506  Scenario_TestCaseAltered.open_flow_switch1.tcp  cwnd  ETV
vector 1497  Scenario_TestCaseAltered.open_flow_switch1.tcp  "rcvd dupAcks"  ETV
vector 1451  Scenario_TestCaseAltered.open_flow_controller1.tcp  "sent seq"  ETV
vector 1467  Scenario_TestCaseAltered.open_flow_controller1.tcp  "measured RTT"  ETV
vector 1468  Scenario_TestCaseAltered.open_flow_controller1.tcp  "smoothed RTT"  ETV
vector 1469  Scenario_TestCaseAltered.open_flow_controller1.tcp  RTTVAR  ETV
vector 1470  Scenario_TestCaseAltered.open_flow_controller1.tcp  RTO  ETV
vector 1552  Scenario_TestCaseAltered.ue[0].tcp  tcpRcvQueueBytes  ETV
vector 1539  Scenario_TestCaseAltered.ue[0].tcp  "advertised window"  ETV
vector 1538  Scenario_TestCaseAltered.ue[0].tcp  "receive window"  ETV
vector 1541  Scenario_TestCaseAltered.ue[0].tcp  "sent ack"  ETV
vector 1576  Scenario_TestCaseAltered.ue[1].tcp  tcpRcvQueueBytes  ETV
vector 1563  Scenario_TestCaseAltered.ue[1].tcp  "advertised window"  ETV
vector 1562  Scenario_TestCaseAltered.ue[1].tcp  "receive window"  ETV
vector 1565  Scenario_TestCaseAltered.ue[1].tcp  "sent ack"  ETV
vector 1600  Scenario_TestCaseAltered.ue[2].tcp  tcpRcvQueueBytes  ETV
vector 1587  Scenario_TestCaseAltered.ue[2].tcp  "advertised window"  ETV
vector 1586  Scenario_TestCaseAltered.ue[2].tcp  "receive window"  ETV
vector 1589  Scenario_TestCaseAltered.ue[2].tcp  "sent ack"  ETV
vector 1624  Scenario_TestCaseAltered.ue[3].tcp  tcpRcvQueueBytes  ETV
vector 1611  Scenario_TestCaseAltered.ue[3].tcp  "advertised window"  ETV
vector 1610  Scenario_TestCaseAltered.ue[3].tcp  "receive window"  ETV
vector 1613  Scenario_TestCaseAltered.ue[3].tcp  "sent ack"  ETV
vector 1648  Scenario_TestCaseAltered.ue[4].tcp  tcpRcvQueueBytes  ETV
vector 1635  Scenario_TestCaseAltered.ue[4].tcp  "advertised window"  ETV
vector 1634  Scenario_TestCaseAltered.ue[4].tcp  "receive window"  ETV
vector 1637  Scenario_TestCaseAltered.ue[4].tcp  "sent ack"  ETV
vector 1672  Scenario_TestCaseAltered.ue[5].tcp  tcpRcvQueueBytes  ETV
vector 1659  Scenario_TestCaseAltered.ue[5].tcp  "advertised window"  ETV
vector 1658  Scenario_TestCaseAltered.ue[5].tcp  "receive window"  ETV
vector 1661  Scenario_TestCaseAltered.ue[5].tcp  "sent ack"  ETV
vector 1696  Scenario_TestCaseAltered.ue[6].tcp  tcpRcvQueueBytes  ETV
vector 1683  Scenario_TestCaseAltered.ue[6].tcp  "advertised window"  ETV
vector 1682  Scenario_TestCaseAltered.ue[6].tcp  "receive window"  ETV
vector 1685  Scenario_TestCaseAltered.ue[6].tcp  "sent ack"  ETV
vector 1720  Scenario_TestCaseAltered.ue[7].tcp  tcpRcvQueueBytes  ETV
vector 1707  Scenario_TestCaseAltered.ue[7].tcp  "advertised window"  ETV
vector 1706  Scenario_TestCaseAltered.ue[7].tcp  "receive window"  ETV
vector 1709  Scenario_TestCaseAltered.ue[7].tcp  "sent ack"  ETV
vector 1744  Scenario_TestCaseAltered.ue[8].tcp  tcpRcvQueueBytes  ETV
vector 1731  Scenario_TestCaseAltered.ue[8].tcp  "advertised window"  ETV
vector 1730  Scenario_TestCaseAltered.ue[8].tcp  "receive window"  ETV
vector 1733  Scenario_TestCaseAltered.ue[8].tcp  "sent ack"  ETV
vector 1768  Scenario_TestCaseAltered.ue[9].tcp  tcpRcvQueueBytes  ETV
vector 1755  Scenario_TestCaseAltered.ue[9].tcp  "advertised window"  ETV
vector 1754  Scenario_TestCaseAltered.ue[9].tcp  "receive window"  ETV
vector 1757  Scenario_TestCaseAltered.ue[9].tcp  "sent ack"  ETV
vector 149  Scenario_TestCaseAltered.ue[0].nic.pdcpRrc  receivedPacketFromUpperLayer:vector(packetBytes)  ETV
attr interpolationmode  none
attr source  receivedPacketFromUpperLayer
vector 152  Scenario_TestCaseAltered.ue[0].nic.pdcpRrc  sentPacketToLowerLayer:vector(packetBytes)  ETV
attr interpolationmode  none
attr source  sentPacketToLowerLayer
vector 170  Scenario_TestCaseAltered.ue[1].nic.pdcpRrc  receivedPacketFromUpperLayer:vector(packetBytes)  ETV
attr interpolationmode  none
attr source  receivedPacketFromUpperLayer
vector 173  Scenario_TestCaseAltered.ue[1].nic.pdcpRrc  sentPacketToLowerLayer:vector(packetBytes)  ETV
attr interpolationmode  none
attr source  sentPacketToLowerLayer
vector 191  Scenario_TestCaseAltered.ue[2].nic.pdcpRrc  receivedPacketFromUpperLayer:vector(packetBytes)  ETV
attr interpolationmode  none
attr source  receivedPacketFromUpperLayer
vector 194  Scenario_TestCaseAltered.ue[2].nic.pdcpRrc  sentPacketToLowerLayer:vector(packetBytes)  ETV
attr interpolationmode  none
attr source  sentPacketToLowerLayer
vector 212  Scenario_TestCaseAltered.ue[3].nic.pdcpRrc  receivedPacketFromUpperLayer:vector(packetBytes)  ETV
attr interpolationmode  none
attr source  receivedPacketFromUpperLayer
vector 215  Scenario_TestCaseAltered.ue[3].nic.pdcpRrc  sentPacketToLowerLayer:vector(packetBytes)  ETV
attr interpolationmode  none
attr source  sentPacketToLowerLayer
vector 233  Scenario_TestCaseAltered.ue[4].nic.pdcpRrc  receivedPacketFromUpperLayer:vector(packetBytes)  ETV
attr interpolationmode  none
attr source  receivedPacketFromUpperLayer
vector 236  Scenario_TestCaseAltered.ue[4].nic.pdcpRrc  sentPacketToLowerLayer:vector(packetBytes)  ETV
attr interpolationmode  none
attr source  sentPacketToLowerLayer
vector 254  Scenario_TestCaseAltered.ue[5].nic.pdcpRrc  receivedPacketFromUpperLayer:vector(packetBytes)  ETV
attr interpolationmode  none
attr source  receivedPacketFromUpperLayer
vector 257  Scenario_TestCaseAltered.ue[5].nic.pdcpRrc  sentPacketToLowerLayer:vector(packetBytes)  ETV
attr interpolationmode  none
attr source  sentPacketToLowerLayer
vector 275  Scenario_TestCaseAltered.ue[6].nic.pdcpRrc  receivedPacketFromUpperLayer:vector(packetBytes)  ETV
attr interpolationmode  none
attr source  receivedPacketFromUpperLayer
vector 278  Scenario_TestCaseAltered.ue[6].nic.pdcpRrc  sentPacketToLowerLayer:vector(packetBytes)  ETV
attr interpolationmode  none
attr source  sentPacketToLowerLayer
vector 296  Scenario_TestCaseAltered.ue[7].nic.pdcpRrc  receivedPacketFromUpperLayer:vector(packetBytes)  ETV
attr interpolationmode  none
attr source  receivedPacketFromUpperLayer
vector 299  Scenario_TestCaseAltered.ue[7].nic.pdcpRrc  sentPacketToLowerLayer:vector(packetBytes)  ETV
attr interpolationmode  none
attr source  sentPacketToLowerLayer
vector 317  Scenario_TestCaseAltered.ue[8].nic.pdcpRrc  receivedPacketFromUpperLayer:vector(packetBytes)  ETV
attr interpolationmode  none
attr source  receivedPacketFromUpperLayer
vector 320  Scenario_TestCaseAltered.ue[8].nic.pdcpRrc  sentPacketToLowerLayer:vector(packetBytes)  ETV
attr interpolationmode  none
attr source  sentPacketToLowerLayer
vector 338  Scenario_TestCaseAltered.ue[9].nic.pdcpRrc  receivedPacketFromUpperLayer:vector(packetBytes)  ETV
attr interpolationmode  none
attr source  receivedPacketFromUpperLayer
vector 341  Scenario_TestCaseAltered.ue[9].nic.pdcpRrc  sentPacketToLowerLayer:vector(packetBytes)  ETV
attr interpolationmode  none
attr source  sentPacketToLowerLayer
vector 153  Scenario_TestCaseAltered.ue[0].nic.mac  receivedPacketFromUpperLayer:vector(packetBytes)  ETV
attr interpolationmode  none
attr source  receivedPacketFromUpperLayer
vector 174  Scenario_TestCaseAltered.ue[1].nic.mac  receivedPacketFromUpperLayer:vector(packetBytes)  ETV
attr interpolationmode  none
attr source  receivedPacketFromUpperLayer
vector 195  Scenario_TestCaseAltered.ue[2].nic.mac  receivedPacketFromUpperLayer:vector(packetBytes)  ETV
attr interpolationmode  none
attr source  receivedPacketFromUpperLayer
vector 216  Scenario_TestCaseAltered.ue[3].nic.mac  receivedPacketFromUpperLayer:vector(packetBytes)  ETV
attr interpolationmode  none
attr source  receivedPacketFromUpperLayer
vector 237  Scenario_TestCaseAltered.ue[4].nic.mac  receivedPacketFromUpperLayer:vector(packetBytes)  ETV
attr interpolationmode  none
attr source  receivedPacketFromUpperLayer
vector 258  Scenario_TestCaseAltered.ue[5].nic.mac  receivedPacketFromUpperLayer:vector(packetBytes)  ETV
attr interpolationmode  none
attr source  receivedPacketFromUpperLayer
vector 279  Scenario_TestCaseAltered.ue[6].nic.mac  receivedPacketFromUpperLayer:vector(packetBytes)  ETV
attr interpolationmode  none
attr source  receivedPacketFromUpperLayer
vector 300  Scenario_TestCaseAltered.ue[7].nic.mac  receivedPacketFromUpperLayer:vector(packetBytes)  ETV
attr interpolationmode  none
attr source  receivedPacketFromUpperLayer
vector 321  Scenario_TestCaseAltered.ue[8].nic.mac  receivedPacketFromUpperLayer:vector(packetBytes)  ETV
attr interpolationmode  none
attr source  receivedPacketFromUpperLayer
vector 342  Scenario_TestCaseAltered.ue[9].nic.mac  receivedPacketFromUpperLayer:vector(packetBytes)  ETV
attr interpolationmode  none
attr source  receivedPacketFromUpperLayer
vector 156  Scenario_TestCaseAltered.ue[0].nic.mac  sentPacketToLowerLayer:vector(packetBytes)  ETV
attr interpolationmode  none
attr source  sentPacketToLowerLayer
vector 177  Scenario_TestCaseAltered.ue[1].nic.mac  sentPacketToLowerLayer:vector(packetBytes)  ETV
attr interpolationmode  none
attr source  sentPacketToLowerLayer
vector 198  Scenario_TestCaseAltered.ue[2].nic.mac  sentPacketToLowerLayer:vector(packetBytes)  ETV
attr interpolationmode  none
attr source  sentPacketToLowerLayer
vector 219  Scenario_TestCaseAltered.ue[3].nic.mac  sentPacketToLowerLayer:vector(packetBytes)  ETV
attr interpolationmode  none
attr source  sentPacketToLowerLayer
vector 240  Scenario_TestCaseAltered.ue[4].nic.mac  sentPacketToLowerLayer:vector(packetBytes)  ETV
attr interpolationmode  none
attr source  sentPacketToLowerLayer
vector 261  Scenario_TestCaseAltered.ue[5].nic.mac  sentPacketToLowerLayer:vector(packetBytes)  ETV
attr interpolationmode  none
attr source  sentPacketToLowerLayer
vector 282  Scenario_TestCaseAltered.ue[6].nic.mac  sentPacketToLowerLayer:vector(packetBytes)  ETV
attr interpolationmode  none
attr source  sentPacketToLowerLayer
vector 303  Scenario_TestCaseAltered.ue[7].nic.mac  sentPacketToLowerLayer:vector(packetBytes)  ETV
attr interpolationmode  none
attr source  sentPacketToLowerLayer
vector 324  Scenario_TestCaseAltered.ue[8].nic.mac  sentPacketToLowerLayer:vector(packetBytes)  ETV
attr interpolationmode  none
attr source  sentPacketToLowerLayer
vector 345  Scenario_TestCaseAltered.ue[9].nic.mac  sentPacketToLowerLayer:vector(packetBytes)  ETV
attr interpolationmode  none
attr source  sentPacketToLowerLayer
vector 125  Scenario_TestCaseAltered.eNodeB.nic.mac  sentPacketToLowerLayer:vector(packetBytes)  ETV
attr interpolationmode  none
attr source  sentPacketToLowerLayer
vector 154  Scenario_TestCaseAltered.ue[0].nic.mac  receivedPacketFromLowerLayer:vector(packetBytes)  ETV
attr interpolationmode  none
attr source  receivedPacketFromLowerLayer
vector 175  Scenario_TestCaseAltered.ue[1].nic.mac  receivedPacketFromLowerLayer:vector(packetBytes)  ETV
attr interpolationmode  none
attr source  receivedPacketFromLowerLayer
vector 196  Scenario_TestCaseAltered.ue[2].nic.mac  receivedPacketFromLowerLayer:vector(packetBytes)  ETV
attr interpolationmode  none
attr source  receivedPacketFromLowerLayer
vector 217  Scenario_TestCaseAltered.ue[3].nic.mac  receivedPacketFromLowerLayer:vector(packetBytes)  ETV
attr interpolationmode  none
attr source  receivedPacketFromLowerLayer
vector 238  Scenario_TestCaseAltered.ue[4].nic.mac  receivedPacketFromLowerLayer:vector(packetBytes)  ETV
attr interpolationmode  none
attr source  receivedPacketFromLowerLayer
vector 259  Scenario_TestCaseAltered.ue[5].nic.mac  receivedPacketFromLowerLayer:vector(packetBytes)  ETV
attr interpolationmode  none
attr source  receivedPacketFromLowerLayer
vector 280  Scenario_TestCaseAltered.ue[6].nic.mac  receivedPacketFromLowerLayer:vector(packetBytes)  ETV
attr interpolationmode  none
attr source  receivedPacketFromLowerLayer
vector 301  Scenario_TestCaseAltered.ue[7].nic.mac  receivedPacketFromLowerLayer:vector(packetBytes)  ETV
attr interpolationmode  none
attr source  receivedPacketFromLowerLayer
vector 322  Scenario_TestCaseAltered.ue[8].nic.mac  receivedPacketFromLowerLayer:vector(packetBytes)  ETV
attr interpolationmode  none
attr source  receivedPacketFromLowerLayer
vector 343  Scenario_TestCaseAltered.ue[9].nic.mac  receivedPacketFromLowerLayer:vector(packetBytes)  ETV
attr interpolationmode  none
attr source  receivedPacketFromLowerLayer
vector 155  Scenario_TestCaseAltered.ue[0].nic.mac  sentPacketToUpperLayer:vector(packetBytes)  ETV
attr interpolationmode  none
attr source  sentPacketToUpperLayer
vector 176  Scenario_TestCaseAltered.ue[1].nic.mac  sentPacketToUpperLayer:vector(packetBytes)  ETV
attr interpolationmode  none
attr source  sentPacketToUpperLayer
vector 197  Scenario_TestCaseAltered.ue[2].nic.mac  sentPacketToUpperLayer:vector(packetBytes)  ETV
attr interpolationmode  none
attr source  sentPacketToUpperLayer
vector 218  Scenario_TestCaseAltered.ue[3].nic.mac  sentPacketToUpperLayer:vector(packetBytes)  ETV
attr interpolationmode  none
attr source  sentPacketToUpperLayer
vector 239  Scenario_TestCaseAltered.ue[4].nic.mac  sentPacketToUpperLayer:vector(packetBytes)  ETV
attr interpolationmode  none
attr source  sentPacketToUpperLayer
vector 260  Scenario_TestCaseAltered.ue[5].nic.mac  sentPacketToUpperLayer:vector(packetBytes)  ETV
attr interpolationmode  none
attr source  sentPacketToUpperLayer
vector 128  Scenario_TestCaseAltered.eNodeB.nic.phy  averageCqiUlvect:vector  ETV
attr source  averageCqiUlvect
attr title  "Average Cqi reported in UL, vector"
attr unit  cqi
vector 124  Scenario_TestCaseAltered.eNodeB.nic.mac  sentPacketToUpperLayer:vector(packetBytes)  ETV
attr interpolationmode  none
attr source  sentPacketToUpperLayer
vector 126  Scenario_TestCaseAltered.eNodeB.nic.mac  measuredItbs:vector  ETV
attr source  measuredItbs
attr title  "TBS index, vector"
attr unit  ""
vector 119  Scenario_TestCaseAltered.eNodeB.nic.pdcpRrc  receivedPacketFromLowerLayer:vector(packetBytes)  ETV
attr interpolationmode  none
attr source  receivedPacketFromLowerLayer
vector 120  Scenario_TestCaseAltered.eNodeB.nic.pdcpRrc  sentPacketToUpperLayer:vector(packetBytes)  ETV
attr interpolationmode  none
attr source  sentPacketToUpperLayer
vector 113  Scenario_TestCaseAltered.eNodeB.udp  sentPk:vector(packetBytes)  ETV
attr interpolationmode  none
attr source  sentPk
attr title  "packets sent, vector(packetBytes)"
vector 130  Scenario_TestCaseAltered.eNodeB.ppp.queue  rcvdPk:vector(packetBytes)  ETV
attr interpolationmode  none
attr title  "received packets, vector(packetBytes)"
vector 132  Scenario_TestCaseAltered.eNodeB.ppp.queue  queueingTime:vector  ETV
attr interpolationmode  none
attr title  "queueing time, vector"
vector 139  Scenario_TestCaseAltered.eNodeB.ppp.ppp  rcvdPkFromHL:vector(packetBytes)  ETV
attr interpolationmode  none
attr source  packetReceivedFromUpper
attr title  "packets received from higher layer, vector(packetBytes)"
vector 135  Scenario_TestCaseAltered.eNodeB.ppp.ppp  txPk:vector(packetBytes)  ETV
attr interpolationmode  none
attr source  packetSentToLower
attr title  "packets transmitted, vector(packetBytes)"
vector 97  Scenario_TestCaseAltered.pgw.ppp[0].ppp  rxPkOk:vector(packetBytes)  ETV
attr interpolationmode  none
attr source  rxPkOk
attr title  "packets received OK, vector(packetBytes)"
vector 101  Scenario_TestCaseAltered.pgw.ppp[0].ppp  passedUpPk:vector(packetBytes)  ETV
attr interpolationmode  none
attr source  packetSentToUpper
attr title  "packets passed to higher layer, vector(packetBytes)"
vector 82  Scenario_TestCaseAltered.pgw.udp  rcvdPk:vector(packetBytes)  ETV
attr interpolationmode  none
attr source  rcvdPk
attr title  "packets received, vector(packetBytes)"
vector 83  Scenario_TestCaseAltered.pgw.udp  passedUpPk:vector(count)  ETV
attr interpolationmode  none
attr title  "packets passed up, vector(count)"
vector 102  Scenario_TestCaseAltered.pgw.pppInterface.queue  rcvdPk:vector(packetBytes)  ETV
attr interpolationmode  none
attr title  "received packets, vector(packetBytes)"
vector 104  Scenario_TestCaseAltered.pgw.pppInterface.queue  queueingTime:vector  ETV
attr interpolationmode  none
attr title  "queueing time, vector"
vector 111  Scenario_TestCaseAltered.pgw.pppInterface.ppp  rcvdPkFromHL:vector(packetBytes)  ETV
attr interpolationmode  none
attr source  packetReceivedFromUpper
attr title  "packets received from higher layer, vector(packetBytes)"
vector 107  Scenario_TestCaseAltered.pgw.pppInterface.ppp  txPk:vector(packetBytes)  ETV
attr interpolationmode  none
attr source  packetSentToLower
attr title  "packets transmitted, vector(packetBytes)"
vector 1443  Scenario_TestCaseAltered.router.ppp[0].ppp  rxPkOk:vector(packetBytes)  ETV
attr interpolationmode  none
attr source  rxPkOk
attr title  "packets received OK, vector(packetBytes)"
vector 1447  Scenario_TestCaseAltered.router.ppp[0].ppp  passedUpPk:vector(packetBytes)  ETV
attr interpolationmode  none
attr source  packetSentToUpper
attr title  "packets passed to higher layer, vector(packetBytes)"
vector 1420  Scenario_TestCaseAltered.router.networkLayer.arp  sentReq:vector  ETV
attr title  "ARP request sent, vector"
vector 1434  Scenario_TestCaseAltered.router.eth[0].encap  encapPk:vector(packetBytes)  ETV
attr interpolationmode  none
attr source  encapPk
attr title  "packets encapsulated, vector(packetBytes)"
vector 1430  Scenario_TestCaseAltered.router.eth[0].mac  rxPkFromHL:vector(packetBytes)  ETV
attr interpolationmode  none
attr source  rxPkFromHL
attr title  "packet bytes from higher layer, vector(packetBytes)"
vector 1425  Scenario_TestCaseAltered.router.eth[0].mac  txPk:vector(packetBytes)  ETV
attr interpolationmode  none
attr source  txPk
attr title  "packets transmitted, vector(packetBytes)"
vector 57  Scenario_TestCaseAltered.open_flow_switch1.etherMAC[2].mac  rxPkOk:vector(packetBytes)  ETV
attr interpolationmode  none
attr source  rxPkOk
attr title  "packets received OK, vector(packetBytes)"
vector 58  Scenario_TestCaseAltered.open_flow_switch1.etherMAC[2].mac  passedUpPk:vector(packetBytes)  ETV
attr interpolationmode  none
attr source  packetSentToUpper
attr title  "packets passed to higher layer, vector(packetBytes)"
vector 39  Scenario_TestCaseAltered.open_flow_switch1.etherMAC[0].mac  rxPkFromHL:vector(packetBytes)  ETV
attr interpolationmode  none
attr source  rxPkFromHL
attr title  "packet bytes from higher layer, vector(packetBytes)"
vector 50  Scenario_TestCaseAltered.open_flow_switch1.etherMAC[1].mac  rxPkFromHL:vector(packetBytes)  ETV
attr interpolationmode  none
attr source  rxPkFromHL
attr title  "packet bytes from higher layer, vector(packetBytes)"
vector 34  Scenario_TestCaseAltered.open_flow_switch1.etherMAC[0].mac  txPk:vector(packetBytes)  ETV
attr interpolationmode  none
attr source  txPk
attr title  "packets transmitted, vector(packetBytes)"
vector 45  Scenario_TestCaseAltered.open_flow_switch1.etherMAC[1].mac  txPk:vector(packetBytes)  ETV
attr interpolationmode  none
attr source  txPk
attr title  "packets transmitted, vector(packetBytes)"
vector 9  Scenario_TestCaseAltered.server.eth[0].mac  rxPkOk:vector(packetBytes)  ETV
attr interpolationmode  none
attr source  rxPkOk
attr title  "packets received OK, vector(packetBytes)"
vector 10  Scenario_TestCaseAltered.server.eth[0].mac  passedUpPk:vector(packetBytes)  ETV
attr interpolationmode  none
attr source  packetSentToUpper
attr title  "packets passed to higher layer, vector(packetBytes)"
vector 1409  Scenario_TestCaseAltered.clientG1[0].eth[0].mac  rxPkOk:vector(packetBytes)  ETV
attr interpolationmode  none
attr source  rxPkOk
attr title  "packets received OK, vector(packetBytes)"
vector 1410  Scenario_TestCaseAltered.clientG1[0].eth[0].mac  passedUpPk:vector(packetBytes)  ETV
attr interpolationmode  none
attr source  packetSentToUpper
attr title  "packets passed to higher layer, vector(packetBytes)"
vector 18  Scenario_TestCaseAltered.server.eth[0].encap  decapPk:vector(packetBytes)  ETV
attr interpolationmode  none
attr source  decapPk
attr title  "packets decapsulated, vector(packetBytes)"
vector 1418  Scenario_TestCaseAltered.clientG1[0].eth[0].encap  decapPk:vector(packetBytes)  ETV
attr interpolationmode  none
attr source  decapPk
attr title  "packets decapsulated, vector(packetBytes)"
vector 4  Scenario_TestCaseAltered.server.networkLayer.arp  sentReply:vector  ETV
attr title  "ARP replies sent, vector"
vector 17  Scenario_TestCaseAltered.server.eth[0].encap  encapPk:vector(packetBytes)  ETV
attr interpolationmode  none
attr source  encapPk
attr title  "packets encapsulated, vector(packetBytes)"
vector 13  Scenario_TestCaseAltered.server.eth[0].mac  rxPkFromHL:vector(packetBytes)  ETV
attr interpolationmode  none
attr source  rxPkFromHL
attr title  "packet bytes from higher layer, vector(packetBytes)"
vector 8  Scenario_TestCaseAltered.server.eth[0].mac  txPk:vector(packetBytes)  ETV
attr interpolationmode  none
attr source  txPk
attr title  "packets transmitted, vector(packetBytes)"
vector 35  Scenario_TestCaseAltered.open_flow_switch1.etherMAC[0].mac  rxPkOk:vector(packetBytes)  ETV
attr interpolationmode  none
attr source  rxPkOk
attr title  "packets received OK, vector(packetBytes)"
vector 36  Scenario_TestCaseAltered.open_flow_switch1.etherMAC[0].mac  passedUpPk:vector(packetBytes)  ETV
attr interpolationmode  none
attr source  packetSentToUpper
attr title  "packets passed to higher layer, vector(packetBytes)"
vector 61  Scenario_TestCaseAltered.open_flow_switch1.etherMAC[2].mac  rxPkFromHL:vector(packetBytes)  ETV
attr interpolationmode  none
attr source  rxPkFromHL
attr title  "packet bytes from higher layer, vector(packetBytes)"
vector 56  Scenario_TestCaseAltered.open_flow_switch1.etherMAC[2].mac  txPk:vector(packetBytes)  ETV
attr interpolationmode  none
attr source  txPk
attr title  "packets transmitted, vector(packetBytes)"
vector 1426  Scenario_TestCaseAltered.router.eth[0].mac  rxPkOk:vector(packetBytes)  ETV
attr interpolationmode  none
attr source  rxPkOk
attr title  "packets received OK, vector(packetBytes)"
vector 1427  Scenario_TestCaseAltered.router.eth[0].mac  passedUpPk:vector(packetBytes)  ETV
attr interpolationmode  none
attr source  packetSentToUpper
attr title  "packets passed to higher layer, vector(packetBytes)"
vector 1435  Scenario_TestCaseAltered.router.eth[0].encap  decapPk:vector(packetBytes)  ETV
attr interpolationmode  none
attr source  decapPk
attr title  "packets decapsulated, vector(packetBytes)"
vector 1477  Scenario_TestCaseAltered.server.tcp  "rcvd seq"  ETV
vector 1478  Scenario_TestCaseAltered.server.tcp  "rcvd ack"  ETV
vector 1474  Scenario_TestCaseAltered.server.tcp  "advertised window"  ETV
vector 1472  Scenario_TestCaseAltered.server.tcp  "send window"  ETV
vector 1487  Scenario_TestCaseAltered.server.tcp  tcpRcvQueueBytes  ETV
vector 1473  Scenario_TestCaseAltered.server.tcp  "receive window"  ETV
vector 1476  Scenario_TestCaseAltered.server.tcp  "sent ack"  ETV
vector 1782  Scenario_TestCaseAltered.server.tcp  "rcvd seq"  ETV
vector 1783  Scenario_TestCaseAltered.server.tcp  "rcvd ack"  ETV
vector 1779  Scenario_TestCaseAltered.server.tcp  "advertised window"  ETV
vector 1777  Scenario_TestCaseAltered.server.tcp  "send window"  ETV
vector 1792  Scenario_TestCaseAltered.server.tcp  tcpRcvQueueBytes  ETV
vector 1778  Scenario_TestCaseAltered.server.tcp  "receive window"  ETV
vector 1781  Scenario_TestCaseAltered.server.tcp  "sent ack"  ETV
vector 1799  Scenario_TestCaseAltered.server.tcp  "rcvd seq"  ETV