version 2
run General-0-20190319-13:35:51-24773
attr configname General
attr controllerServiceTimeFactor 1
attr datetime 20190319-13:35:51
attr experiment General
attr inifile omnetpp.ini
attr iterationvars $controllerServiceTimeFactor=1
attr iterationvars2 "$controllerServiceTimeFactor=1, $repetition=0"
attr measurement $controllerServiceTimeFactor=1
attr network openflow.networks.Scenario_TestCaseAltered
attr processid 24773
attr repetition 0
attr replication #0
attr resultdir results
attr runnumber 0
attr seedset 0

vector 82  Scenario_TestCaseAltered.pgw.ppp[0].queue  queueLength:vector  ETV
attr interpolationmode  sample-hold
attr title  "queue length, vector"
vector 83  Scenario_TestCaseAltered.pgw.ppp[0].ppp  txState:vector  ETV
attr interpolationmode  sample-hold
attr title  "tx state, vector"
vector 93  Scenario_TestCaseAltered.pgw.pppInterface.queue  queueLength:vector  ETV
attr interpolationmode  sample-hold
attr title  "queue length, vector"
vector 94  Scenario_TestCaseAltered.pgw.pppInterface.ppp  txState:vector  ETV
attr interpolationmode  sample-hold
attr title  "tx state, vector"
vector 121  Scenario_TestCaseAltered.eNodeB.ppp.queue  queueLength:vector  ETV
attr interpolationmode  sample-hold
attr title  "queue length, vector"
vector 122  Scenario_TestCaseAltered.eNodeB.ppp.ppp  txState:vector  ETV
attr interpolationmode  sample-hold
attr title  "tx state, vector"
vector 187  Scenario_TestCaseAltered.server.ppp[0].queue  queueLength:vector  ETV
attr interpolationmode  sample-hold
attr title  "queue length, vector"
vector 188  Scenario_TestCaseAltered.server.ppp[0].ppp  txState:vector  ETV
attr interpolationmode  sample-hold
attr title  "tx state, vector"
vector 111  Scenario_TestCaseAltered.eNodeB.nic.mac  receivedPacketFromLowerLayer:vector(packetBytes)  ETV
attr interpolationmode  none
attr source  receivedPacketFromLowerLayer
vector 258  Scenario_TestCaseAltered.open_flow_switch1.tcp  tcpRcvQueueBytes  ETV
vector 245  Scenario_TestCaseAltered.open_flow_switch1.tcp  "advertised window"  ETV
vector 244  Scenario_TestCaseAltered.open_flow_switch1.tcp  "receive window"  ETV
vector 247  Scenario_TestCaseAltered.open_flow_switch1.tcp  "sent ack"  ETV
vector 19  Scenario_TestCaseAltered.open_flow_switch1.networkLayer.arp  sentReq:vector  ETV
attr title  "ARP request sent, vector"
vector 30  Scenario_TestCaseAltered.open_flow_switch1.eth[0].encap  encapPk:vector(packetBytes)  ETV
attr interpolationmode  none
attr source  encapPk
attr title  "packets encapsulated, vector(packetBytes)"
vector 26  Scenario_TestCaseAltered.open_flow_switch1.eth[0].mac  rxPkFromHL:vector(packetBytes)  ETV
attr interpolationmode  none
attr source  rxPkFromHL
attr title  "packet bytes from higher layer, vector(packetBytes)"
vector 21  Scenario_TestCaseAltered.open_flow_switch1.eth[0].mac  txPk:vector(packetBytes)  ETV
attr interpolationmode  none
attr source  txPk
attr title  "packets transmitted, vector(packetBytes)"
vector 58  Scenario_TestCaseAltered.open_flow_controller1.eth[0].mac  rxPkOk:vector(packetBytes)  ETV
attr interpolationmode  none
attr source  rxPkOk
attr title  "packets received OK, vector(packetBytes)"
vector 59  Scenario_TestCaseAltered.open_flow_controller1.eth[0].mac  passedUpPk:vector(packetBytes)  ETV
attr interpolationmode  none
attr source  packetSentToUpper
attr title  "packets passed to higher layer, vector(packetBytes)"
vector 67  Scenario_TestCaseAltered.open_flow_controller1.eth[0].encap  decapPk:vector(packetBytes)  ETV
attr interpolationmode  none
attr source  decapPk
attr title  "packets decapsulated, vector(packetBytes)"
vector 56  Scenario_TestCaseAltered.open_flow_controller1.networkLayer.arp  sentReply:vector  ETV
attr title  "ARP replies sent, vector"
vector 66  Scenario_TestCaseAltered.open_flow_controller1.eth[0].encap  encapPk:vector(packetBytes)  ETV
attr interpolationmode  none
attr source  encapPk
attr title  "packets encapsulated, vector(packetBytes)"
vector 62  Scenario_TestCaseAltered.open_flow_controller1.eth[0].mac  rxPkFromHL:vector(packetBytes)  ETV
attr interpolationmode  none
attr source  rxPkFromHL
attr title  "packet bytes from higher layer, vector(packetBytes)"
vector 57  Scenario_TestCaseAltered.open_flow_controller1.eth[0].mac  txPk:vector(packetBytes)  ETV
attr interpolationmode  none
attr source  txPk
attr title  "packets transmitted, vector(packetBytes)"
vector 22  Scenario_TestCaseAltered.open_flow_switch1.eth[0].mac  rxPkOk:vector(packetBytes)  ETV
attr interpolationmode  none
attr source  rxPkOk
attr title  "packets received OK, vector(packetBytes)"
vector 23  Scenario_TestCaseAltered.open_flow_switch1.eth[0].mac  passedUpPk:vector(packetBytes)  ETV
attr interpolationmode  none
attr source  packetSentToUpper
attr title  "packets passed to higher layer, vector(packetBytes)"
vector 31  Scenario_TestCaseAltered.open_flow_switch1.eth[0].encap  decapPk:vector(packetBytes)  ETV
attr interpolationmode  none
attr source  decapPk
attr title  "packets decapsulated, vector(packetBytes)"
vector 200  Scenario_TestCaseAltered.open_flow_controller1.tcp  "rcvd seq"  ETV
vector 201  Scenario_TestCaseAltered.open_flow_controller1.tcp  "rcvd ack"  ETV
vector 197  Scenario_TestCaseAltered.open_flow_controller1.tcp  "advertised window"  ETV
vector 195  Scenario_TestCaseAltered.open_flow_controller1.tcp  "send window"  ETV
vector 210  Scenario_TestCaseAltered.open_flow_controller1.tcp  tcpRcvQueueBytes  ETV
vector 196  Scenario_TestCaseAltered.open_flow_controller1.tcp  "receive window"  ETV
vector 199  Scenario_TestCaseAltered.open_flow_controller1.tcp  "sent ack"  ETV
vector 248  Scenario_TestCaseAltered.open_flow_switch1.tcp  "rcvd seq"  ETV
vector 249  Scenario_TestCaseAltered.open_flow_switch1.tcp  "rcvd ack"  ETV
vector 243  Scenario_TestCaseAltered.open_flow_switch1.tcp  "send window"  ETV
vector 246  Scenario_TestCaseAltered.open_flow_switch1.tcp  "sent seq"  ETV
vector 250  Scenario_TestCaseAltered.open_flow_switch1.tcp  "unacked bytes"  ETV
vector 202  Scenario_TestCaseAltered.open_flow_controller1.tcp  "unacked bytes"  ETV
vector 212  Scenario_TestCaseAltered.open_flow_controller1.tcp  cwnd  ETV
vector 203  Scenario_TestCaseAltered.open_flow_controller1.tcp  "rcvd dupAcks"  ETV
vector 262  Scenario_TestCaseAltered.open_flow_switch1.tcp  "measured RTT"  ETV
vector 263  Scenario_TestCaseAltered.open_flow_switch1.tcp  "smoothed RTT"  ETV
vector 264  Scenario_TestCaseAltered.open_flow_switch1.tcp  RTTVAR  ETV
vector 265  Scenario_TestCaseAltered.open_flow_switch1.tcp  RTO  ETV
vector 260  Scenario_TestCaseAltered.open_flow_switch1.tcp  cwnd  ETV
vector 251  Scenario_TestCaseAltered.open_flow_switch1.tcp  "rcvd dupAcks"  ETV
vector 198  Scenario_TestCaseAltered.open_flow_controller1.tcp  "sent seq"  ETV
vector 214  Scenario_TestCaseAltered.open_flow_controller1.tcp  "measured RTT"  ETV
vector 215  Scenario_TestCaseAltered.open_flow_controller1.tcp  "smoothed RTT"  ETV
vector 216  Scenario_TestCaseAltered.open_flow_controller1.tcp  RTTVAR  ETV
vector 217  Scenario_TestCaseAltered.open_flow_controller1.tcp  RTO  ETV
vector 306  Scenario_TestCaseAltered.clientG1[0].tcp  tcpRcvQueueBytes  ETV
vector 293  Scenario_TestCaseAltered.clientG1[0].tcp  "advertised window"  ETV
vector 292  Scenario_TestCaseAltered.clientG1[0].tcp  "receive window"  ETV
vector 295  Scenario_TestCaseAltered.clientG1[0].tcp  "sent ack"  ETV
vector 162  Scenario_TestCaseAltered.clientG1[0].networkLayer.arp  sentReq:vector  ETV
attr title  "ARP request sent, vector"
vector 176  Scenario_TestCaseAltered.clientG1[0].eth[0].encap  encapPk:vector(packetBytes)  ETV
attr interpolationmode  none
attr source  encapPk
attr title  "packets encapsulated, vector(packetBytes)"
vector 172  Scenario_TestCaseAltered.clientG1[0].eth[0].mac  rxPkFromHL:vector(packetBytes)  ETV
attr interpolationmode  none
attr source  rxPkFromHL
attr title  "packet bytes from higher layer, vector(packetBytes)"
vector 167  Scenario_TestCaseAltered.clientG1[0].eth[0].mac  txPk:vector(packetBytes)  ETV
attr interpolationmode  none
attr source  txPk
attr title  "packets transmitted, vector(packetBytes)"
vector 45  Scenario_TestCaseAltered.open_flow_switch1.etherMAC[1].mac  rxPkOk:vector(packetBytes)  ETV
attr interpolationmode  none
attr source  rxPkOk
attr title  "packets received OK, vector(packetBytes)"
vector 46  Scenario_TestCaseAltered.open_flow_switch1.etherMAC[1].mac  passedUpPk:vector(packetBytes)  ETV
attr interpolationmode  none
attr source  packetSentToUpper
attr title  "packets passed to higher layer, vector(packetBytes)"
vector 38  Scenario_TestCaseAltered.open_flow_switch1.etherMAC[0].mac  rxPkFromHL:vector(packetBytes)  ETV
attr interpolationmode  none
attr source  rxPkFromHL
attr title  "packet bytes from higher layer, vector(packetBytes)"
vector 33  Scenario_TestCaseAltered.open_flow_switch1.etherMAC[0].mac  txPk:vector(packetBytes)  ETV
attr interpolationmode  none
attr source  txPk
attr title  "packets transmitted, vector(packetBytes)"
vector 8  Scenario_TestCaseAltered.clientG2[0].eth[0].mac  rxPkOk:vector(packetBytes)  ETV
attr interpolationmode  none
attr source  rxPkOk
attr title  "packets received OK, vector(packetBytes)"
vector 9  Scenario_TestCaseAltered.clientG2[0].eth[0].mac  passedUpPk:vector(packetBytes)  ETV
attr interpolationmode  none
attr source  packetSentToUpper
attr title  "packets passed to higher layer, vector(packetBytes)"
vector 17  Scenario_TestCaseAltered.clientG2[0].eth[0].encap  decapPk:vector(packetBytes)  ETV
attr interpolationmode  none
attr source  decapPk
attr title  "packets decapsulated, vector(packetBytes)"
vector 3  Scenario_TestCaseAltered.clientG2[0].networkLayer.arp  sentReply:vector  ETV
attr title  "ARP replies sent, vector"
vector 16  Scenario_TestCaseAltered.clientG2[0].eth[0].encap  encapPk:vector(packetBytes)  ETV
attr interpolationmode  none
attr source  encapPk
attr title  "packets encapsulated, vector(packetBytes)"
vector 12  Scenario_TestCaseAltered.clientG2[0].eth[0].mac  rxPkFromHL:vector(packetBytes)  ETV
attr interpolationmode  none
attr source  rxPkFromHL
attr title  "packet bytes from higher layer, vector(packetBytes)"
vector 7  Scenario_TestCaseAltered.clientG2[0].eth[0].mac  txPk:vector(packetBytes)  ETV
attr interpolationmode  none
attr source  txPk
attr title  "packets transmitted, vector(packetBytes)"
vector 34  Scenario_TestCaseAltered.open_flow_switch1.etherMAC[0].mac  rxPkOk:vector(packetBytes)  ETV
attr interpolationmode  none
attr source  rxPkOk
attr title  "packets received OK, vector(packetBytes)"
vector 35  Scenario_TestCaseAltered.open_flow_switch1.etherMAC[0].mac  passedUpPk:vector(packetBytes)  ETV
attr interpolationmode  none
attr source  packetSentToUpper
attr title  "packets passed to higher layer, vector(packetBytes)"
vector 49  Scenario_TestCaseAltered.open_flow_switch1.etherMAC[1].mac  rxPkFromHL:vector(packetBytes)  ETV
attr interpolationmode  none
attr source  rxPkFromHL
attr title  "packet bytes from higher layer, vector(packetBytes)"
vector 44  Scenario_TestCaseAltered.open_flow_switch1.etherMAC[1].mac  txPk:vector(packetBytes)  ETV
attr interpolationmode  none
attr source  txPk
attr title  "packets transmitted, vector(packetBytes)"
vector 168  Scenario_TestCaseAltered.clientG1[0].eth[0].mac  rxPkOk:vector(packetBytes)  ETV
attr interpolationmode  none
attr source  rxPkOk
attr title  "packets received OK, vector(packetBytes)"
vector 169  Scenario_TestCaseAltered.clientG1[0].eth[0].mac  passedUpPk:vector(packetBytes)  ETV
attr interpolationmode  none
attr source  packetSentToUpper
attr title  "packets passed to higher layer, vector(packetBytes)"
vector 177  Scenario_TestCaseAltered.clientG1[0].eth[0].encap  decapPk:vector(packetBytes)  ETV
attr interpolationmode  none
attr source  decapPk
attr title  "packets decapsulated, vector(packetBytes)"
vector 224  Scenario_TestCaseAltered.clientG2[0].tcp  "rcvd seq"  ETV
vector 225  Scenario_TestCaseAltered.clientG2[0].tcp  "rcvd ack"  ETV
vector 221  Scenario_TestCaseAltered.clientG2[0].tcp  "advertised window"  ETV
vector 219  Scenario_TestCaseAltered.clientG2[0].tcp  "send window"  ETV
vector 234  Scenario_TestCaseAltered.clientG2[0].tcp  tcpRcvQueueBytes  ETV
vector 220  Scenario_TestCaseAltered.clientG2[0].tcp  "receive window"  ETV
vector 223  Scenario_TestCaseAltered.clientG2[0].tcp  "sent ack"  ETV
vector 296  Scenario_TestCaseAltered.clientG1[0].tcp  "rcvd seq"  ETV
vector 297  Scenario_TestCaseAltered.clientG1[0].tcp  "rcvd ack"  ETV
vector 291  Scenario_TestCaseAltered.clientG1[0].tcp  "send window"  ETV
vector 160  Scenario_TestCaseAltered.clientG1[0].tcpApp[0]  sentPk:vector(packetBytes)  ETV
attr interpolationmode  none
attr source  sentPk
attr title  "packets sent, vector(packetBytes)"
vector 294  Scenario_TestCaseAltered.clientG1[0].tcp  "sent seq"  ETV
vector 298  Scenario_TestCaseAltered.clientG1[0].tcp  "unacked bytes"  ETV
vector 226  Scenario_TestCaseAltered.clientG2[0].tcp  "unacked bytes"  ETV
vector 227  Scenario_TestCaseAltered.clientG2[0].tcp  "rcvd dupAcks"  ETV
vector 0  Scenario_TestCaseAltered.clientG2[0].tcpApp[0]  rcvdPk:vector(packetBytes)  ETV
attr interpolationmode  none
attr source  rcvdPk
attr title  "packets received, vector(packetBytes)"
vector 1  Scenario_TestCaseAltered.clientG2[0].tcpApp[0]  endToEndDelay:vector  ETV
attr interpolationmode  none
attr source  messageAge(rcvdPk)
attr title  "end-to-end delay, vector"
attr unit  s
vector 310  Scenario_TestCaseAltered.clientG1[0].tcp  "measured RTT"  ETV
vector 311  Scenario_TestCaseAltered.clientG1[0].tcp  "smoothed RTT"  ETV
vector 312  Scenario_TestCaseAltered.clientG1[0].tcp  RTTVAR  ETV
vector 313  Scenario_TestCaseAltered.clientG1[0].tcp  RTO  ETV
vector 308  Scenario_TestCaseAltered.clientG1[0].tcp  cwnd  ETV
vector 299  Scenario_TestCaseAltered.clientG1[0].tcp  "rcvd dupAcks"  ETV
vector 236  Scenario_TestCaseAltered.clientG2[0].tcp  cwnd  ETV
236	75889	2.00018056	1072
219	4045	1.000396959994	7504
219	4086	1.000493999994	7504
219	75889	2.00018056	7504
220	4045	1.000396959994	7504
220	4100	1.000585519993	7504
220	4146	1.000767359993	7504
220	4175	1.000816479992	7504
220	4222	1.000949199993	7504
220	4257	1.000998319992	7504
220	4303	1.001075119993	7504
220	4329	1.001145119993	7504
220	4364	1.001194239992	7504
220	4401	1.001250119993	7504
220	4444	1.001320119993	7504
220	4482	1.001390119993	7504
220	4514	1.001460119993	7504
220	4549	1.001509239992	7504
220	4585	1.001565119993	7504
220	4611	1.001635119993	7504
220	4646	1.001684239992	7504
220	4683	1.001740119993	7504
220	4723	1.001810119993	7504
220	4758	1.001880119993	7504
220	4799	1.001950119993	7504
220	4838	1.002020119993	7504
220	4864	1.002090119993	7504
220	4896	1.002139239992	7504
220	4936	1.002195119993	7504
220	4962	1.002265119993	7504
220	4993	1.002314239992	7504
220	5027	1.002370119993	7504
220	5052	1.002440119993	7504
220	5079	1.002489239992	7504
220	5113	1.002545119993	7504
220	5148	1.002615119993	7504
220	5183	1.002685119993	7504
220	5218	1.002755119993	7504
220	5253	1.002825119993	7504
220	5288	1.002895119993	7504
220	5343	1.003000119993	7504
220	5378	1.003070119993	7504
220	5413	1.003140119993	7504
220	5448	1.003210119993	7504
220	5483	1.003280119993	7504
220	5518	1.003350119993	7504
220	5543	1.003420119993	7504
220	5570	1.003469239992	7504
220	5604	1.003525119993	7504
220	5639	1.003595119993	7504
220	5674	1.003665119993	7504
220	5709	1.003735119993	7504
220	5744	1.003805119993	7504
220	5779	1.003875119993	7504
220	5830	1.003980119993	7504
220	5870	1.004050119993	7504
220	5905	1.004120119993	7504
220	5940	1.004190119993	7504
220	5975	1.004260119993	7504
220	6010	1.004330119993	7504
220	6035	1.004400119993	7504
220	6062	1.004449239992	7504
220	6096	1.004505119993	7504
220	6131	1.004575119993	7504
220	6166	1.004645119993	7504
220	6201	1.004715119993	7504
220	6236	1.004785119993	7504
220	6271	1.004855119993	7504
220	6322	1.004960119993	7504
220	6360	1.005030119993	7504
220	6395	1.005100119993	7504
220	6430	1.005170119993	7504
220	6465	1.005240119993	7504
220	6500	1.005310119993	7504
220	6525	1.005380119993	7504
220	6552	1.005429239992	7504
220	6586	1.005485119993	7504
220	6621	1.005555119993	7504
220	6656	1.005625119993	7504
220	6691	1.005695119993	7504
220	6726	1.005765119993	7504
220	6761	1.005835119993	7504
220	6812	1.005940119993	7504
220	6850	1.006010119993	7504
220	6885	1.006080119993	7504
220	6920	1.006150119993	7504
220	6955	1.006220119993	7504
220	6990	1.006290119993	7504
220	7015	1.006360119993	7504
220	7042	1.006409239992	7504
220	7076	1.006465119993	7504
220	7111	1.006535119993	7504
220	7146	1.006605119993	7504
220	7181	1.006675119993	7504
220	7216	1.006745119993	7504
220	7251	1.006815119993	7504
220	7302	1.006920119993	7504
220	7337	1.006990119993	7504
220	7375	1.007060119993	7504
220	7410	1.007130119993	7504
220	7445	1.007200119993	7504
220	7480	1.007270119993	7504
220	7505	1.007340119993	7504
220	7532	1.007389239992	7504
220	7566	1.007445119993	7504
220	7601	1.007515119993	7504
220	7636	1.007585119993	7504
220	7671	1.007655119993	7504
220	7706	1.007725119993	7504
220	7741	1.007795119993	7504
220	7792	1.007900119993	7504
220	7827	1.007970119993	7504
220	7866	1.008040119993	7504
220	7901	1.008110119993	7504
220	7936	1.008180119993	7504
220	7971	1.008250119993	7504
220	7996	1.008320119993	7504
220	8023	1.008369239992	7504
220	8057	1.008425119993	7504
220	8092	1.008495119993	7504
220	8127	1.008565119993	7504
220	8162	1.008635119993	7504
220	8197	1.008705119993	7504
220	8232	1.008775119993	7504
220	8283	1.008880119993	7504
220	8318	1.008950119993	7504
220	8357	1.009020119993	7504
220	8392	1.009090119993	7504
220	8427	1.009160119993	7504
220	8462	1.009230119993	7504
220	8487	1.009300119993	7504
220	8514	1.009349239992	7504
220	8548	1.009405119993	7504
220	8583	1.009475119993	7504
220	8618	1.009545119993	7504
220	8653	1.009615119993	7504
220	8688	1.009685119993	7504
220	8723	1.009755119993	7504
220	8774	1.009860119993	7504
220	8809	1.009930119993	7504
220	8849	1.010000119993	7504
220	8884	1.010070119993	7504
220	8919	1.010140119993	7504
220	8954	1.010210119993	7504
220	8979	1.010280119993	7504
220	9006	1.010329239992	7504
220	9040	1.010385119993	7504
220	9075	1.010455119993	7504
220	9110	1.010525119993	7504
220	9145	1.010595119993	7504
220	9180	1.010665119993	7504
220	9215	1.010735119993	7504
220	9266	1.010840119993	7504
220	9301	1.010910119993	7504
220	9336	1.010980119993	7504
220	9374	1.011050119993	7504
220	9409	1.011120119993	7504
220	9444	1.011190119993	7504
220	9469	1.011260119993	7504
220	9496	1.011309239992	7504
220	9530	1.011365119993	7504
220	9565	1.011435119993	7504
220	9600	1.011505119993	7504
220	9635	1.011575119993	7504
220	9670	1.011645119993	7504
220	9705	1.011715119993	7504
220	9756	1.011820119993	7504
220	9791	1.011890119993	7504
220	9826	1.011960119993	7504
220	9864	1.012030119993	7504
220	9899	1.012100119993	7504
220	9934	1.012170119993	7504
220	9959	1.012240119993	7504
220	9986	1.012289239992	7504
220	10020	1.012345119993	7504
220	10055	1.012415119993	7504
220	10090	1.012485119993	7504
220	10125	1.012555119993	7504
220	10160	1.012625119993	7504
220	10195	1.012695119993	7504
220	10246	1.012800119993	7504
220	10281	1.012870119993	7504
220	10316	1.012940119993	7504
220	10354	1.013010119993	7504
220	10389	1.013080119993	7504
220	10424	1.013150119993	7504
220	10449	1.013220119993	7504
220	10476	1.013269239992	7504
220	10510	1.013325119993	7504
220	10545	1.013395119993	7504
220	10580	1.013465119993	7504
220	10615	1.013535119993	7504
220	10650	1.013605119993	7504
220	10685	1.013675119993	7504
220	10736	1.013780119993	7504
220	10771	1.013850119993	7504
220	10806	1.013920119993	7504
220	10841	1.013990119993	7504
220	10880	1.014060119993	7504
220	10915	1.014130119993	7504
220	10940	1.014200119993	7504
220	10967	1.014249239992	7504
220	11001	1.014305119993	7504
220	11036	1.014375119993	7504
220	11071	1.014445119993	7504
220	11106	1.014515119993	7504
220	11141	1.014585119993	7504
220	11176	1.014655119993	7504
220	11227	1.014760119993	7504
220	11262	1.014830119993	7504
220	11297	1.014900119993	7504
220	11332	1.014970119993	7504
220	11371	1.015040119993	7504
220	11406	1.015110119993	7504
220	11431	1.015180119993	7504
220	11458	1.015229239992	7504
220	11492	1.015285119993	7504
220	11527	1.015355119993	7504
220	11562	1.015425119993	7504
220	11597	1.015495119993	7504
220	11632	1.015565119993	7504
220	11667	1.015635119993	7504
220	11718	1.015740119993	7504
220	11753	1.015810119993	7504
220	11788	1.015880119993	7504
220	11823	1.015950119993	7504
220	11863	1.016020119993	7504
220	11898	1.016090119993	7504
220	11923	1.016160119993	7504
220	11950	1.016209239992	7504
220	11984	1.016265119993	7504
220	12019	1.016335119993	7504
220	12054	1.016405119993	7504
220	12089	1.016475119993	7504
220	12124	1.016545119993	7504
220	12159	1.016615119993	7504
220	12210	1.016720119993	7504
220	12245	1.016790119993	7504
220	12280	1.016860119993	7504
220	12315	1.016930119993	7504
220	12353	1.017000119993	7504
220	12388	1.017070119993	7504
220	12413	1.017140119993	7504
220	12440	1.017189239992	7504
220	12474	1.017245119993	7504
220	12509	1.017315119993	7504
220	12544	1.017385119993	7504
220	12579	1.017455119993	7504
220	12614	1.017525119993	7504
220	12649	1.017595119993	7504
220	12700	1.017700119993	7504
220	12735	1.017770119993	7504
220	12770	1.017840119993	7504
220	12805	1.017910119993	7504
220	12840	1.017980119993	7504
220	12878	1.018050119993	7504
220	12903	1.018120119993	7504
220	12930	1.018169239992	7504
220	12964	1.018225119993	7504
220	12999	1.018295119993	7504
220	13034	1.018365119993	7504
220	13069	1.018435119993	7504
220	13104	1.018505119993	7504
220	13139	1.018575119993	7504
220	13190	1.018680119993	7504
220	13225	1.018750119993	7504
220	13260	1.018820119993	7504
220	13295	1.018890119993	7504
220	13330	1.018960119993	7504
220	13368	1.019030119993	7504
220	13393	1.019100119993	7504
220	13420	1.019149239992	7504
220	13454	1.019205119993	7504
220	13489	1.019275119993	7504
220	13524	1.019345119993	7504
220	13559	1.019415119993	7504
220	13594	1.019485119993	7504
220	13629	1.019555119993	7504
220	13680	1.019660119993	7504
220	13715	1.019730119993	7504
220	13750	1.019800119993	7504
220	13785	1.019870119993	7504
220	13820	1.019940119993	7504
220	13859	1.020010119993	7504
220	13884	1.020080119993	7504
220	13911	1.020129239992	7504
220	13945	1.020185119993	7504
220	13980	1.020255119993	7504
220	14015	1.020325119993	7504
220	14050	1.020395119993	7504
220	14085	1.020465119993	7504
220	14120	1.020535119993	7504
220	14171	1.020640119993	7504
220	14206	1.020710119993	7504
220	14241	1.020780119993	7504
220	14276	1.020850119993	7504
220	14311	1.020920119993	7504
220	14346	1.020990119993	7504
220	14375	1.021060119993	7504
220	14402	1.021109239992	7504
220	14436	1.021165119993	7504
220	14471	1.021235119993	7504
220	14506	1.021305119993	7504
220	14541	1.021375119993	7504
220	14576	1.021445119993	7504
220	14611	1.021515119993	7504
220	14662	1.021620119993	7504
220	14697	1.021690119993	7504
220	14732	1.021760119993	7504
220	14767	1.021830119993	7504
220	14802	1.021900119993	7504
220	14837	1.021970119993	7504
220	14867	1.022040119993	7504
220	14894	1.022089239992	7504
220	14928	1.022145119993	7504
220	14963	1.022215119993	7504
220	14998	1.022285119993	7504
220	15033	1.022355119993	7504
220	15068	1.022425119993	7504
220	15103	1.022495119993	7504
220	15154	1.022600119993	7504
220	15189	1.022670119993	7504
220	15224	1.022740119993	7504
220	15259	1.022810119993	7504
220	15294	1.022880119993	7504
220	15329	1.022950119993	7504
220	15357	1.023020119993	7504
220	15384	1.023069239992	7504
220	15418	1.023125119993	7504
220	15453	1.023195119993	7504
220	15488	1.023265119993	7504
220	15523	1.023335119993	7504
220	15558	1.023405119993	7504
220	15593	1.023475119993	7504
220	15644	1.023580119993	7504
220	15679	1.023650119993	7504
220	15714	1.023720119993	7504
220	15749	1.023790119993	7504
220	15784	1.023860119993	7504
220	15819	1.023930119993	7504
220	15847	1.024000119993	7504
220	15874	1.024049239992	7504
220	15908	1.024105119993	7504
220	15943	1.024175119993	7504
220	15978	1.024245119993	7504
220	16013	1.024315119993	7504
220	16048	1.024385119993	7504
220	16083	1.024455119993	7504
220	16134	1.024560119993	7504
220	16169	1.024630119993	7504
220	16204	1.024700119993	7504
220	16239	1.024770119993	7504
220	16274	1.024840119993	7504
220	16309	1.024910119993	7504
220	16334	1.024980119993	7504
220	16364	1.025029239992	7504
220	16398	1.025085119993	7504
220	16433	1.025155119993	7504
220	16468	1.025225119993	7504
220	16503	1.025295119993	7504
220	16538	1.025365119993	7504
220	16573	1.025435119993	7504
220	16624	1.025540119993	7504
220	16659	1.025610119993	7504
220	16694	1.025680119993	7504
220	16729	1.025750119993	7504
220	16764	1.025820119993	7504
220	16799	1.025890119993	7504
220	16824	1.025960119993	7504
220	16855	1.026009239992	7504
220	16889	1.026065119993	7504
220	16924	1.026135119993	7504
220	16959	1.026205119993	7504
220	16994	1.026275119993	7504
220	17029	1.026345119993	7504
220	17064	1.026415119993	7504
220	17115	1.026520119993	7504
220	17150	1.026590119993	7504
220	17185	1.026660119993	7504
220	17220	1.026730119993	7504
220	17255	1.026800119993	7504
220	17290	1.026870119993	7504
220	17315	1.026940119993	7504
220	17342	1.026989239992	7504
220	17380	1.027045119993	7504
220	17415	1.027115119993	7504
220	17450	1.027185119993	7504
220	17485	1.027255119993	7504
220	17520	1.027325119993	7504
220	17555	1.027395119993	7504
220	17606	1.027500119993	7504
220	17641	1.027570119993	7504
220	17676	1.027640119993	7504
220	17711	1.027710119993	7504
220	17746	1.027780119993	7504
220	17781	1.027850119993	7504
220	17806	1.027920119993	7504
220	17833	1.027969239992	7504
220	17872	1.028025119993	7504
220	17907	1.028095119993	7504
220	17942	1.028165119993	7504
220	17977	1.028235119993	7504
220	18012	1.028305119993	7504
220	18047	1.028375119993	7504
220	18098	1.028480119993	7504
220	18133	1.028550119993	7504
220	18168	1.028620119993	7504
220	18203	1.028690119993	7504
220	18238	1.028760119993	7504
220	18273	1.028830119993	7504
220	18298	1.028900119993	7504
220	18325	1.028949239992	7504
220	18362	1.029005119993	7504
220	18397	1.029075119993	7504
220	18432	1.029145119993	7504
220	18467	1.029215119993	7504
220	18502	1.029285119993	7504
220	18537	1.029355119993	7504
220	18588	1.029460119993	7504
220	18623	1.029530119993	7504
220	18658	1.029600119993	7504
220	18693	1.029670119993	7504
220	18728	1.029740119993	7504
220	18763	1.029810119993	7504
220	18788	1.029880119993	7504
220	18815	1.029929239992	7504
220	18849	1.029985119993	7504
220	18887	1.030055119993	7504
220	18922	1.030125119993	7504
220	18957	1.030195119993	7504
220	18992	1.030265119993	7504
220	19027	1.030335119993	7504
220	19078	1.030440119993	7504
220	19113	1.030510119993	7504
220	19148	1.030580119993	7504
220	19183	1.030650119993	7504
220	19218	1.030720119993	7504
220	19253	1.030790119993	7504
220	19278	1.030860119993	7504
220	19305	1.030909239992	7504
220	19339	1.030965119993	7504
220	19377	1.031035119993	7504
220	19412	1.031105119993	7504
220	19447	1.031175119993	7504
220	19482	1.031245119993	7504
220	19517	1.031315119993	7504
220	19568	1.031420119993	7504
220	19603	1.031490119993	7504
220	19638	1.031560119993	7504
220	19673	1.031630119993	7504
220	19708	1.031700119993	7504
220	19743	1.031770119993	7504
220	19768	1.031840119993	7504
220	19795	1.031889239992	7504
220	19829	1.031945119993	7504
220	19868	1.032015119993	7504
220	19903	1.032085119993	7504
220	19938	1.032155119993	7504
220	19973	1.032225119993	7504
220	20008	1.032295119993	7504
220	20059	1.032400119993	7504
220	20094	1.032470119993	7504
220	20129	1.032540119993	7504
220	20164	1.032610119993	7504
220	20199	1.032680119993	7504
220	20234	1.032750119993	7504
220	20259	1.032820119993	7504
220	20286	1.032869239992	7504
220	20320	1.032925119993	7504
220	20355	1.032995119993	7504
220	20394	1.033065119993	7504
220	20429	1.033135119993	7504
220	20464	1.033205119993	7504
220	20499	1.033275119993	7504
220	20550	1.033380119993	7504
220	20585	1.033450119993	7504
220	20620	1.033520119993	7504
220	20655	1.033590119993	7504
220	20690	1.033660119993	7504
220	20725	1.033730119993	7504
220	20750	1.033800119993	7504
220	20777	1.033849239992	7504
220	20811	1.033905119993	7504
220	20846	1.033975119993	7504
220	20886	1.034045119993	7504
220	20921	1.034115119993	7504
220	20956	1.034185119993	7504
220	20991	1.034255119993	7504
220	21042	1.034360119993	7504
220	21077	1.034430119993	7504
220	21112	1.034500119993	7504
220	21147	1.034570119993	7504
220	21182	1.034640119993	7504
220	21217	1.034710119993	7504
220	21242	1.034780119993	7504
220	21269	1.034829239992	7504
220	21303	1.034885119993	7504
220	21338	1.034955119993	7504
220	21376	1.035025119993	7504
220	21411	1.035095119993	7504
220	21446	1.035165119993	7504
220	21481	1.035235119993	7504
220	21532	1.035340119993	7504
220	21567	1.035410119993	7504
220	21602	1.035480119993	7504
220	21637	1.035550119993	7504
220	21672	1.035620119993	7504
220	21707	1.035690119993	7504
220	21732	1.035760119993	7504
220	21759	1.035809239992	7504
220	21793	1.035865119993	7504
220	21828	1.035935119993	7504
220	21866	1.036005119993	7504
220	21901	1.036075119993	7504
220	21936	1.036145119993	7504
220	21971	1.036215119993	7504
220	22022	1.036320119993	7504
220	22057	1.036390119993	7504
220	22092	1.036460119993	7504
220	22127	1.036530119993	7504
220	22162	1.036600119993	7504
220	22197	1.036670119993	7504
220	22222	1.036740119993	7504
220	22249	1.036789239992	7504
220	22283	1.036845119993	7504
220	22318	1.036915119993	7504
220	22353	1.036985119993	7504
220	22391	1.037055119993	7504
220	22426	1.037125119993	7504
220	22461	1.037195119993	7504
220	22512	1.037300119993	7504
220	22547	1.037370119993	7504
220	22582	1.037440119993	7504
220	22617	1.037510119993	7504
220	22652	1.037580119993	7504
220	22687	1.037650119993	7504
220	22712	1.037720119993	7504
220	22739	1.037769239992	7504
220	22773	1.037825119993	7504
220	22808	1.037895119993	7504
220	22843	1.037965119993	7504
220	22882	1.038035119993	7504